LAMMPS data file Created by LigParGen - (Written by Leela S. Dodda)

      18 atoms
      18 bonds
      30 angles
      37 dihedrals
       6 impropers
 
      18 atom types
      18 bond types
      30 angle types
      37 dihedral types
       6 improper types
 
   -2.194030    47.805970 xlo xhi
   -0.976060    49.023940 ylo yhi
   -0.935550    49.064450 zlo zhi

Masses

       1     12.011  
       2     12.011  
       3     12.011  
       4     12.011  
       5     12.011  
       6     12.011  
       7     12.011  
       8     12.011  
       9      1.008  
      10      1.008  
      11      1.008  
      12      1.008  
      13      1.008  
      14      1.008  
      15      1.008  
      16      1.008  
      17      1.008  
      18      1.008  

Pair Coeffs 

       1      0.070  3.5500000 
       2      0.070  3.5500000 
       3      0.070  3.5500000 
       4      0.070  3.5500000 
       5      0.066  3.5000000 
       6      0.066  3.5000000 
       7      0.070  3.5500000 
       8      0.070  3.5500000 
       9      0.030  2.4200000 
      10      0.030  2.4200000 
      11      0.030  2.4200000 
      12      0.030  2.5000000 
      13      0.030  2.5000000 
      14      0.030  2.5000000 
      15      0.030  2.5000000 
      16      0.030  2.5000000 
      17      0.030  2.4200000 
      18      0.030  2.4200000 

Bond Coeffs 

       1   469.0000     1.4000 
       2   469.0000     1.4000 
       3   469.0000     1.4000 
       4   317.0000     1.5100 
       5   268.0000     1.5290 
       6   469.0000     1.4000 
       7   469.0000     1.4000 
       8   367.0000     1.0800 
       9   367.0000     1.0800 
      10   367.0000     1.0800 
      11   340.0000     1.0900 
      12   340.0000     1.0900 
      13   340.0000     1.0900 
      14   340.0000     1.0900 
      15   340.0000     1.0900 
      16   367.0000     1.0800 
      17   367.0000     1.0800 
      18   469.0000     1.4000 

Angle Coeffs 

       1     63.000    120.000
       2     63.000    120.000
       3     70.000    120.000
       4     63.000    114.000
       5     63.000    120.000
       6     63.000    120.000
       7     35.000    120.000
       8     35.000    120.000
       9     35.000    120.000
      10     35.000    109.500
      11     35.000    109.500
      12     37.500    110.700
      13     37.500    110.700
      14     37.500    110.700
      15     35.000    120.000
      16     35.000    120.000
      17     33.000    107.800
      18     33.000    107.800
      19     35.000    120.000
      20     63.000    120.000
      21     37.500    110.700
      22     33.000    107.800
      23     70.000    120.000
      24     35.000    120.000
      25     35.000    120.000
      26     33.000    107.800
      27     35.000    120.000
      28     37.500    110.700
      29     63.000    120.000
      30     35.000    120.000

Dihedral Coeffs  

       1      0.000      7.250      0.000      0.000 
       2      0.000      7.250      0.000      0.000 
       3      0.000      0.150      0.000      0.000 
       4      0.000      7.250      0.000      0.000 
       5      0.000      7.250      0.000      0.000 
       6      0.000      7.250      0.000      0.000 
       7      0.000      7.250      0.000      0.000 
       8      0.000      7.250      0.000      0.000 
       9      0.000      0.000      0.000      0.000 
      10      0.000      0.000      0.000      0.000 
      11      0.000      0.000      0.462      0.000 
      12      0.000      0.000      0.462      0.000 
      13      0.000      0.000      0.462      0.000 
      14      0.000      7.250      0.000      0.000 
      15      0.000      7.250      0.000      0.000 
      16      0.000      7.250      0.000      0.000 
      17      0.000      0.150      0.000      0.000 
      18      0.000      7.250      0.000      0.000 
      19      0.000      7.250      0.000      0.000 
      20      0.000      7.250      0.000      0.000 
      21      0.000      0.000      0.300      0.000 
      22      0.000      0.000      0.300      0.000 
      23      0.000      7.250      0.000      0.000 
      24      0.000      7.250      0.000      0.000 
      25      0.000      7.250      0.000      0.000 
      26      0.000      7.250      0.000      0.000 
      27      0.000      0.000      0.000      0.000 
      28      0.000      7.250      0.000      0.000 
      29      0.000      0.000      0.300      0.000 
      30      0.000      0.000      0.300      0.000 
      31      0.000      0.000      0.300      0.000 
      32      0.000      0.000      0.000      0.000 
      33      0.000      7.250      0.000      0.000 
      34      0.000      0.000      0.300      0.000 
      35      0.000      7.250      0.000      0.000 
      36      0.000      7.250      0.000      0.000 
      37      0.000      7.250      0.000      0.000 

Improper Coeffs 

       1      2.500      -1       2 
       2      2.500      -1       2 
       3      2.500      -1       2 
       4      2.500      -1       2 
       5      2.500      -1       2 
       6      2.500      -1       2 

Atoms 

     1      1      1 -0.15240000    1.000  1.00000  0.00000
     2      1      2 -0.14640000   -0.408  1.00000  0.00000
     3      1      3 -0.14370000   -1.114  1.00000  1.21946
     4      1      4 -0.08220000   -0.412  1.00250  2.44277
     5      1      5 -0.13570000   -1.171  0.99623  3.75444
     6      1      6 -0.23080000   -1.473 -0.41440  4.27176
     7      1      7 -0.14370000    0.998  0.99495  2.44017
     8      1      8 -0.14640000    1.703  0.99724  1.22064
     9      1      9 0.14740000    1.541  1.00028 -0.93555
    10      1     10 0.14770000   -0.949  0.99920 -0.93548
    11      1     11 0.14860000   -2.194  0.99651  1.21249
    12      1     12 0.09430000   -2.102  1.55097  3.62842
    13      1     13 0.09430000   -0.595  1.54796  4.49921
    14      1     14 0.08420000   -2.077 -0.97287  3.55624
    15      1     15 0.08420000   -2.018 -0.37958  5.21523
    16      1     16 0.08420000   -0.553 -0.97606  4.43692
    17      1     17 0.14860000    1.543  0.98764  3.37300
    18      1     18 0.14770000    2.783  0.99423  1.22239

Bonds 

     1      1      2      1
     2      2      3      2
     3      3      4      3
     4      4      5      4
     5      5      6      5
     6      6      7      4
     7      7      8      1
     8      8      9      1
     9      9     10      2
    10     10     11      3
    11     11     12      5
    12     12     13      5
    13     13     14      6
    14     14     15      6
    15     15     16      6
    16     16     17      7
    17     17     18      8
    18     18      8      7

Angles 

     1      1      1      2      3
     2      2      2      3      4
     3      3      3      4      5
     4      4      4      5      6
     5      5      3      4      7
     6      6      2      1      8
     7      7      2      1      9
     8      8      1      2     10
     9      9      2      3     11
    10     10      4      5     12
    11     11      4      5     13
    12     12      5      6     14
    13     13      5      6     15
    14     14      5      6     16
    15     15      4      7     17
    16     16      1      8     18
    17     17     15      6     16
    18     18     12      5     13
    19     19      4      3     11
    20     20      4      7      8
    21     21      6      5     12
    22     22     14      6     16
    23     23      5      4      7
    24     24      7      8     18
    25     25      8      7     17
    26     26     14      6     15
    27     27      8      1      9
    28     28      6      5     13
    29     29      1      8      7
    30     30      3      2     10

Dihedrals

     1      1      4      3      2      1 
     2      2      5      4      3      2 
     3      3      6      5      4      3 
     4      4      7      4      3      2 
     5      5      8      1      2      3 
     6      6      9      1      2      3 
     7      7     10      2      1      8 
     8      8     11      3      2      1 
     9      9     12      5      4      3 
    10     10     13      5      4      3 
    11     11     14      6      5      4 
    12     12     15      6      5      4 
    13     13     16      6      5      4 
    14     14     17      7      4      3 
    15     15     18      8      1      2 
    16     16     17      7      4      5 
    17     17      7      4      5      6 
    18     18     10      2      1      9 
    19     19     11      3      2     10 
    20     20      7      8      1      2 
    21     21     15      6      5     12 
    22     22     16      6      5     13 
    23     23     17      7      8      1 
    24     24     18      8      1      9 
    25     25      8      7      4      5 
    26     26     18      8      7     17 
    27     27     12      5      4      7 
    28     28      9      1      8      7 
    29     29     14      6      5     13 
    30     30     16      6      5     12 
    31     31     14      6      5     12 
    32     32     13      5      4      7 
    33     33     10      2      3      4 
    34     34     15      6      5     13 
    35     35     11      3      4      7 
    36     36     18      8      7      4 
    37     37     11      3      4      5 

Impropers

     1      1      1      9      2      8 
     2      2      2      1      3     10 
     3      3      3      2      4     11 
     4      4      4      3      5      7 
     5      5      7     17      4      8 
     6      6      8      1     18      7 
