LAMMPS data file Created by LigParGen - (Written by Leela S. Dodda)

       9 atoms
       8 bonds
      13 angles
      12 dihedrals
       0 impropers
 
       9 atom types
       8 bond types
      13 angle types
      12 dihedral types
       0 improper types
 
   -0.997980    49.002020 xlo xhi
    0.111210    50.111210 ylo yhi
   -1.019650    48.980350 zlo zhi

Masses

       1     12.011  
       2     12.011  
       3     15.999  
       4      1.008  
       5      1.008  
       6      1.008  
       7      1.008  
       8      1.008  
       9      1.008  

Pair Coeffs 

       1      0.066  3.5000000 
       2      0.066  3.5000000 
       3      0.170  3.1200000 
       4      0.030  2.5000000 
       5      0.030  2.5000000 
       6      0.030  2.5000000 
       7      0.030  2.5000000 
       8      0.030  2.5000000 
       9      0.000  0.0000000 

Bond Coeffs 

       1   268.0000     1.5290 
       2   320.0000     1.4100 
       3   340.0000     1.0900 
       4   340.0000     1.0900 
       5   340.0000     1.0900 
       6   340.0000     1.0900 
       7   340.0000     1.0900 
       8   553.0000     0.9450 

Angle Coeffs 

       1     50.000    109.500
       2     37.500    110.700
       3     37.500    110.700
       4     37.500    110.700
       5     37.500    110.700
       6     37.500    110.700
       7     55.000    108.500
       8     33.000    107.800
       9     33.000    107.800
      10     35.000    109.500
      11     35.000    109.500
      12     33.000    107.800
      13     33.000    107.800

Dihedral Coeffs  

       1      0.000      0.000      0.468      0.000 
       2      0.000      0.000      0.468      0.000 
       3      0.000      0.000      0.468      0.000 
       4      0.000      0.000      0.300      0.000 
       5      0.000      0.000      0.300      0.000 
       6     -0.356     -0.174      0.492      0.000 
       7      0.000      0.000      0.352      0.000 
       8      0.000      0.000      0.300      0.000 
       9      0.000      0.000      0.300      0.000 
      10      0.000      0.000      0.352      0.000 
      11      0.000      0.000      0.300      0.000 
      12      0.000      0.000      0.300      0.000 

Atoms 

     1      1      1 -0.28990000    1.000  1.00000  0.00000
     2      1      2 0.01780000   -0.531  1.00000  0.00000
     3      1      3 -0.58940000   -0.998  1.00000  1.33196
     4      1      4 0.08990000    1.386  1.02509 -1.01965
     5      1      5 0.08990000    1.407  0.11121  0.48313
     6      1      6 0.08990000    1.393  1.87531  0.51921
     7      1      7 0.09250000   -0.922  0.13048 -0.53130
     8      1      8 0.09250000   -0.911  1.88684 -0.51047
     9      1      9 0.40680000   -0.749  0.19143  1.75496

Bonds 

     1      1      2      1
     2      2      3      2
     3      3      4      1
     4      4      5      1
     5      5      6      1
     6      6      7      2
     7      7      8      2
     8      8      9      3

Angles 

     1      1      1      2      3
     2      2      2      1      4
     3      3      2      1      5
     4      4      2      1      6
     5      5      1      2      7
     6      6      1      2      8
     7      7      2      3      9
     8      8      4      1      5
     9      9      5      1      6
    10     10      3      2      7
    11     11      3      2      8
    12     12      4      1      6
    13     13      7      2      8

Dihedrals

     1      1      4      1      2      3 
     2      2      5      1      2      3 
     3      3      6      1      2      3 
     4      4      7      2      1      4 
     5      5      8      2      1      4 
     6      6      9      3      2      1 
     7      7      9      3      2      8 
     8      8      8      2      1      5 
     9      9      7      2      1      5 
    10     10      9      3      2      7 
    11     11      7      2      1      6 
    12     12      8      2      1      6 
