LAMMPS data file Created by LigParGen - (Written by Leela S. Dodda)

      11 atoms
      11 bonds
      16 angles
      18 dihedrals
       5 impropers
 
      11 atom types
      11 bond types
      16 angle types
      18 dihedral types
       5 improper types
 
   -2.161370    47.838630 xlo xhi
    1.000000    51.000000 ylo yhi
   -0.929380    49.070620 zlo zhi

Masses

       1     12.011  
       2     12.011  
       3     12.011  
       4     14.007  
       5     12.011  
       6     12.011  
       7      1.008  
       8      1.008  
       9      1.008  
      10      1.008  
      11      1.008  

Pair Coeffs 

       1      0.070  3.5500000 
       2      0.070  3.5500000 
       3      0.070  3.5500000 
       4      0.170  3.2500000 
       5      0.070  3.5500000 
       6      0.070  3.5500000 
       7      0.030  2.4200000 
       8      0.030  2.4200000 
       9      0.030  2.4200000 
      10      0.030  2.4200000 
      11      0.030  2.4200000 

Bond Coeffs 

       1   469.0000     1.4000 
       2   469.0000     1.4000 
       3   483.0000     1.3390 
       4   483.0000     1.3390 
       5   469.0000     1.4000 
       6   367.0000     1.0800 
       7   367.0000     1.0800 
       8   367.0000     1.0800 
       9   367.0000     1.0800 
      10   367.0000     1.0800 
      11   469.0000     1.4000 

Angle Coeffs 

       1     63.000    120.000
       2     70.000    124.000
       3     70.000    117.000
       4     63.000    120.000
       5     35.000    120.000
       6     35.000    120.000
       7     35.000    120.000
       8     35.000    116.000
       9     35.000    120.000
      10     35.000    120.000
      11     35.000    120.000
      12     35.000    120.000
      13     63.000    120.000
      14     35.000    116.000
      15     70.000    124.000
      16     35.000    120.000

Dihedral Coeffs  

       1      0.000      7.250      0.000      0.000 
       2      0.000      7.250      0.000      0.000 
       3      0.000      7.250      0.000      0.000 
       4      0.000      7.250      0.000      0.000 
       5      0.000      7.250      0.000      0.000 
       6      0.000      7.250      0.000      0.000 
       7      0.000      7.250      0.000      0.000 
       8      0.000      7.250      0.000      0.000 
       9      0.000      7.250      0.000      0.000 
      10      0.000      7.250      0.000      0.000 
      11      0.000      7.250      0.000      0.000 
      12      0.000      7.250      0.000      0.000 
      13      0.000      7.250      0.000      0.000 
      14      0.000      7.250      0.000      0.000 
      15      0.000      7.250      0.000      0.000 
      16      0.000      7.250      0.000      0.000 
      17      0.000      7.250      0.000      0.000 
      18      0.000      7.250      0.000      0.000 

Improper Coeffs 

       1      2.500      -1       2 
       2      2.500      -1       2 
       3      2.500      -1       2 
       4      2.500      -1       2 
       5      2.500      -1       2 

Atoms 

     1      1      1 -0.10000000    1.000  1.00000  0.00000
     2      1      2 -0.20640000   -0.409  1.00000  0.00000
     3      1      3 0.01140000   -1.081  1.00000  1.23934
     4      1      4 -0.35140000   -0.440  1.00000  2.42782
     5      1      5 0.01140000    0.910  1.00000  2.42060
     6      1      6 -0.20640000    1.676  1.00000  1.23646
     7      1      7 0.15630000    1.551  1.00000 -0.92938
     8      1      8 0.16260000   -0.964  1.00000 -0.92733
     9      1      9 0.18000000   -2.161  1.00000  1.28030
    10      1     10 0.18000000    1.393  1.00000  3.38810
    11      1     11 0.16260000    2.755  1.00000  1.27841

Bonds 

     1      1      2      1
     2      2      3      2
     3      3      4      3
     4      4      5      4
     5      5      6      1
     6      6      7      1
     7      7      8      2
     8      8      9      3
     9      9     10      5
    10     10     11      6
    11     11      6      5

Angles 

     1      1      1      2      3
     2      2      2      3      4
     3      3      3      4      5
     4      4      2      1      6
     5      5      2      1      7
     6      6      1      2      8
     7      7      2      3      9
     8      8      4      5     10
     9      9      1      6     11
    10     10      5      6     11
    11     11      6      1      7
    12     12      6      5     10
    13     13      1      6      5
    14     14      4      3      9
    15     15      4      5      6
    16     16      3      2      8

Dihedrals

     1      1      4      3      2      1 
     2      2      5      4      3      2 
     3      3      6      1      2      3 
     4      4      7      1      2      3 
     5      5      8      2      1      6 
     6      6      9      3      2      1 
     7      7     10      5      4      3 
     8      8     11      6      1      2 
     9      9      8      2      1      7 
    10     10      9      3      2      8 
    11     11     11      6      5     10 
    12     12      9      3      4      5 
    13     13      8      2      3      4 
    14     14      7      1      6      5 
    15     15     10      5      6      1 
    16     16     11      6      1      7 
    17     17      5      6      1      2 
    18     18     11      6      5      4 

Impropers

     1      1      1      2      6      7 
     2      2      2      1      3      8 
     3      3      3      9      2      4 
     4      4      5     10      4      6 
     5      5      6      1     11      5 
