LAMMPS data file Created by LigParGen - (Written by Leela S. Dodda)

      18 atoms
      18 bonds
      30 angles
      34 dihedrals
       7 impropers
 
      18 atom types
      18 bond types
      30 angle types
      34 dihedral types
       7 improper types
 
   -5.242710    44.757290 xlo xhi
   -0.023540    49.976460 ylo yhi
   -2.159210    47.840790 zlo zhi

Masses

       1     12.011  
       2     12.011  
       3     12.011  
       4     12.011  
       5     12.011  
       6     12.011  
       7     12.011  
       8     12.011  
       9      1.008  
      10      1.008  
      11      1.008  
      12      1.008  
      13      1.008  
      14      1.008  
      15      1.008  
      16      1.008  
      17      1.008  
      18      1.008  

Pair Coeffs 

       1      0.066  3.5000000 
       2      0.070  3.5500000 
       3      0.070  3.5500000 
       4      0.070  3.5500000 
       5      0.070  3.5500000 
       6      0.070  3.5500000 
       7      0.070  3.5500000 
       8      0.066  3.5000000 
       9      0.030  2.5000000 
      10      0.030  2.5000000 
      11      0.030  2.5000000 
      12      0.030  2.4200000 
      13      0.030  2.4200000 
      14      0.030  2.4200000 
      15      0.030  2.4200000 
      16      0.030  2.5000000 
      17      0.030  2.5000000 
      18      0.030  2.5000000 

Bond Coeffs 

       1   317.0000     1.5100 
       2   469.0000     1.4000 
       3   469.0000     1.4000 
       4   469.0000     1.4000 
       5   469.0000     1.4000 
       6   469.0000     1.4000 
       7   317.0000     1.5100 
       8   340.0000     1.0900 
       9   340.0000     1.0900 
      10   340.0000     1.0900 
      11   367.0000     1.0800 
      12   367.0000     1.0800 
      13   367.0000     1.0800 
      14   367.0000     1.0800 
      15   340.0000     1.0900 
      16   340.0000     1.0900 
      17   340.0000     1.0900 
      18   469.0000     1.4000 

Angle Coeffs 

       1     70.000    120.000
       2     63.000    120.000
       3     63.000    120.000
       4     63.000    120.000
       5     70.000    120.000
       6     70.000    120.000
       7     35.000    109.500
       8     35.000    109.500
       9     35.000    109.500
      10     35.000    120.000
      11     35.000    120.000
      12     35.000    120.000
      13     35.000    120.000
      14     35.000    109.500
      15     35.000    109.500
      16     35.000    109.500
      17     35.000    120.000
      18     33.000    107.800
      19     33.000    107.800
      20     70.000    120.000
      21     33.000    107.800
      22     35.000    120.000
      23     63.000    120.000
      24     35.000    120.000
      25     63.000    120.000
      26     33.000    107.800
      27     35.000    120.000
      28     33.000    107.800
      29     63.000    120.000
      30     33.000    107.800

Dihedral Coeffs  

       1      0.000      7.250      0.000      0.000 
       2      0.000      7.250      0.000      0.000 
       3      0.000      7.250      0.000      0.000 
       4      0.000      7.250      0.000      0.000 
       5      0.000      0.000      0.000      0.000 
       6      0.000      0.000      0.000      0.000 
       7      0.000      0.000      0.000      0.000 
       8      0.000      7.250      0.000      0.000 
       9      0.000      7.250      0.000      0.000 
      10      0.000      7.250      0.000      0.000 
      11      0.000      7.250      0.000      0.000 
      12      0.000      0.000      0.000      0.000 
      13      0.000      0.000      0.000      0.000 
      14      0.000      0.000      0.000      0.000 
      15      0.000      7.250      0.000      0.000 
      16      0.000      7.250      0.000      0.000 
      17      0.000      7.250      0.000      0.000 
      18      0.000      0.000      0.000      0.000 
      19      0.000      7.250      0.000      0.000 
      20      0.000      0.000      0.000      0.000 
      21      0.000      0.000      0.000      0.000 
      22      0.000      7.250      0.000      0.000 
      23      0.000      7.250      0.000      0.000 
      24      0.000      7.250      0.000      0.000 
      25      0.000      7.250      0.000      0.000 
      26      0.000      0.000      0.000      0.000 
      27      0.000      7.250      0.000      0.000 
      28      0.000      7.250      0.000      0.000 
      29      0.000      0.000      0.000      0.000 
      30      0.000      7.250      0.000      0.000 
      31      0.000      7.250      0.000      0.000 
      32      0.000      7.250      0.000      0.000 
      33      0.000      7.250      0.000      0.000 
      34      0.000      0.000      0.000      0.000 

Improper Coeffs 

       1      2.500      -1       2 
       2      2.500      -1       2 
       3      2.500      -1       2 
       4      2.500      -1       2 
       5      2.500      -1       2 
       6      2.500      -1       2 
       7      2.500      -1       2 

Atoms 

     1      1      1 -0.19560000    1.000  1.00000  0.00000
     2      1      2 -0.08860000   -0.514  1.00000  0.00000
     3      1      3 -0.14380000   -1.222  1.00000  1.21887
     4      1      4 -0.14380000   -2.630  0.99662  1.21888
     5      1      5 -0.08860000   -3.339  0.99032  0.00003
     6      1      6 -0.14380000   -2.630  0.99223 -1.21884
     7      1      7 -0.14380000   -1.222  0.99411 -1.21885
     8      1      8 -0.19560000   -4.853  0.99028 -0.00000
     9      1      9 0.09170000    1.390  1.51204  0.87991
    10      1     10 0.09170000    1.390  1.50784 -0.88234
    11      1     11 0.09170000    1.375 -0.02354  0.00244
    12      1     12 0.14830000   -0.690  1.00214  2.15923
    13      1     13 0.14830000   -3.162  0.99885  2.15926
    14      1     14 0.14830000   -3.162  0.99103 -2.15919
    15      1     15 0.14830000   -0.690  0.99176 -2.15921
    16      1     16 0.09170000   -5.243  0.48186  0.88201
    17      1     17 0.09170000   -5.243  0.47879 -0.88024
    18      1     18 0.09170000   -5.228  2.01381 -0.00179

Bonds 

     1      1      2      1
     2      2      3      2
     3      3      4      3
     4      4      5      4
     5      5      6      5
     6      6      7      2
     7      7      8      5
     8      8      9      1
     9      9     10      1
    10     10     11      1
    11     11     12      3
    12     12     13      4
    13     13     14      6
    14     14     15      7
    15     15     16      8
    16     16     17      8
    17     17     18      8
    18     18      7      6

Angles 

     1      1      1      2      3
     2      2      2      3      4
     3      3      3      4      5
     4      4      4      5      6
     5      5      1      2      7
     6      6      4      5      8
     7      7      2      1      9
     8      8      2      1     10
     9      9      2      1     11
    10     10      2      3     12
    11     11      3      4     13
    12     12      5      6     14
    13     13      2      7     15
    14     14      5      8     16
    15     15      5      8     17
    16     16      5      8     18
    17     17      7      6     14
    18     18     16      8     17
    19     19     10      1     11
    20     20      6      5      8
    21     21      9      1     10
    22     22      4      3     12
    23     23      2      7      6
    24     24      6      7     15
    25     25      5      6      7
    26     26     17      8     18
    27     27      5      4     13
    28     28      9      1     11
    29     29      3      2      7
    30     30     16      8     18

Dihedrals

     1      1      4      3      2      1 
     2      2      5      4      3      2 
     3      3      6      5      4      3 
     4      4      8      5      4      3 
     5      5      9      1      2      3 
     6      6     10      1      2      3 
     7      7     11      1      2      3 
     8      8     12      3      2      1 
     9      9     13      4      3      2 
    10     10     14      6      5      4 
    11     11     15      7      2      1 
    12     12     16      8      5      4 
    13     13     17      8      5      4 
    14     14     18      8      5      4 
    15     15      7      2      3      4 
    16     16     13      4      3     12 
    17     17      8      5      6      7 
    18     18     16      8      5      6 
    19     19     12      3      2      7 
    20     20      9      1      2      7 
    21     21     17      8      5      6 
    22     22     15      7      2      3 
    23     23     12      3      4      5 
    24     24     14      6      7      2 
    25     25     13      4      5      6 
    26     26     10      1      2      7 
    27     27     15      7      6     14 
    28     28     15      7      6      5 
    29     29     18      8      5      6 
    30     30     13      4      5      8 
    31     31      6      7      2      3 
    32     32     14      6      5      8 
    33     33      6      7      2      1 
    34     34     11      1      2      7 

Impropers

     1      1      2      1      3      7 
     2      2      2      1      3      7 
     3      3      3      4      2     12 
     4      4      4     13      3      5 
     5      5      5      4      6      8 
     6      6      6      5      7     14 
     7      7      7      2     15      6 
