LAMMPS data file Created by LigParGen - (Written by Leela S. Dodda)

      15 atoms
      15 bonds
      24 angles
      28 dihedrals
       6 impropers
 
      15 atom types
      15 bond types
      24 angle types
      28 dihedral types
       6 improper types
 
   -2.194320    47.805680 xlo xhi
   -0.026280    49.973720 ylo yhi
   -0.935650    49.064350 zlo zhi

Masses

       1     12.011  
       2     12.011  
       3     12.011  
       4     12.011  
       5     12.011  
       6     12.011  
       7     12.011  
       8      1.008  
       9      1.008  
      10      1.008  
      11      1.008  
      12      1.008  
      13      1.008  
      14      1.008  
      15      1.008  

Pair Coeffs 

       1      0.070  3.5500000 
       2      0.070  3.5500000 
       3      0.070  3.5500000 
       4      0.070  3.5500000 
       5      0.066  3.5000000 
       6      0.070  3.5500000 
       7      0.070  3.5500000 
       8      0.030  2.4200000 
       9      0.030  2.4200000 
      10      0.030  2.4200000 
      11      0.030  2.5000000 
      12      0.030  2.5000000 
      13      0.030  2.5000000 
      14      0.030  2.4200000 
      15      0.030  2.4200000 

Bond Coeffs 

       1   469.0000     1.4000 
       2   469.0000     1.4000 
       3   469.0000     1.4000 
       4   317.0000     1.5100 
       5   469.0000     1.4000 
       6   469.0000     1.4000 
       7   367.0000     1.0800 
       8   367.0000     1.0800 
       9   367.0000     1.0800 
      10   340.0000     1.0900 
      11   340.0000     1.0900 
      12   340.0000     1.0900 
      13   367.0000     1.0800 
      14   367.0000     1.0800 
      15   469.0000     1.4000 

Angle Coeffs 

       1     63.000    120.000
       2     63.000    120.000
       3     70.000    120.000
       4     63.000    120.000
       5     63.000    120.000
       6     35.000    120.000
       7     35.000    120.000
       8     35.000    120.000
       9     35.000    109.500
      10     35.000    109.500
      11     35.000    109.500
      12     35.000    120.000
      13     35.000    120.000
      14     35.000    120.000
      15     70.000    120.000
      16     33.000    107.800
      17     33.000    107.800
      18     63.000    120.000
      19     33.000    107.800
      20     35.000    120.000
      21     35.000    120.000
      22     35.000    120.000
      23     63.000    120.000
      24     35.000    120.000

Dihedral Coeffs  

       1      0.000      7.250      0.000      0.000 
       2      0.000      7.250      0.000      0.000 
       3      0.000      7.250      0.000      0.000 
       4      0.000      7.250      0.000      0.000 
       5      0.000      7.250      0.000      0.000 
       6      0.000      7.250      0.000      0.000 
       7      0.000      7.250      0.000      0.000 
       8      0.000      0.000      0.000      0.000 
       9      0.000      0.000      0.000      0.000 
      10      0.000      0.000      0.000      0.000 
      11      0.000      7.250      0.000      0.000 
      12      0.000      7.250      0.000      0.000 
      13      0.000      0.000      0.000      0.000 
      14      0.000      7.250      0.000      0.000 
      15      0.000      7.250      0.000      0.000 
      16      0.000      0.000      0.000      0.000 
      17      0.000      7.250      0.000      0.000 
      18      0.000      7.250      0.000      0.000 
      19      0.000      7.250      0.000      0.000 
      20      0.000      7.250      0.000      0.000 
      21      0.000      7.250      0.000      0.000 
      22      0.000      7.250      0.000      0.000 
      23      0.000      7.250      0.000      0.000 
      24      0.000      7.250      0.000      0.000 
      25      0.000      7.250      0.000      0.000 
      26      0.000      7.250      0.000      0.000 
      27      0.000      7.250      0.000      0.000 
      28      0.000      0.000      0.000      0.000 

Improper Coeffs 

       1      2.500      -1       2 
       2      2.500      -1       2 
       3      2.500      -1       2 
       4      2.500      -1       2 
       5      2.500      -1       2 
       6      2.500      -1       2 

Atoms 

     1      1      1 -0.15420000    1.000  1.00000  0.00000
     2      1      2 -0.14460000   -0.408  1.00000  0.00000
     3      1      3 -0.14730000   -1.114  1.00000  1.21927
     4      1      4 -0.08230000   -0.412  1.00172  2.44246
     5      1      5 -0.19670000   -1.170  0.99811  3.75323
     6      1      6 -0.14730000    0.998  0.99750  2.44022
     7      1      7 -0.14460000    1.703  0.99866  1.22062
     8      1      8 0.14740000    1.541  1.00019 -0.93555
     9      1      9 0.14770000   -0.949  0.99962 -0.93565
    10      1     10 0.14840000   -2.194  0.99832  1.20972
    11      1     11 0.09250000   -2.132  1.49936  3.64931
    12      1     12 0.09250000   -0.606  1.51488  4.53055
    13      1     13 0.09250000   -1.348 -0.02628  4.08064
    14      1     14 0.14840000    1.545  0.99394  3.37196
    15      1     15 0.14770000    2.783  0.99721  1.22217

Bonds 

     1      1      2      1
     2      2      3      2
     3      3      4      3
     4      4      5      4
     5      5      6      4
     6      6      7      1
     7      7      8      1
     8      8      9      2
     9      9     10      3
    10     10     11      5
    11     11     12      5
    12     12     13      5
    13     13     14      6
    14     14     15      7
    15     15      7      6

Angles 

     1      1      1      2      3
     2      2      2      3      4
     3      3      3      4      5
     4      4      3      4      6
     5      5      2      1      7
     6      6      2      1      8
     7      7      1      2      9
     8      8      2      3     10
     9      9      4      5     11
    10     10      4      5     12
    11     11      4      5     13
    12     12      4      6     14
    13     13      1      7     15
    14     14      7      6     14
    15     15      5      4      6
    16     16     11      5     12
    17     17     12      5     13
    18     18      4      6      7
    19     19     11      5     13
    20     20      3      2      9
    21     21      7      1      8
    22     22      6      7     15
    23     23      1      7      6
    24     24      4      3     10

Dihedrals

     1      1      4      3      2      1 
     2      2      5      4      3      2 
     3      3      6      4      3      2 
     4      4      7      1      2      3 
     5      5      8      1      2      3 
     6      6      9      2      1      7 
     7      7     10      3      2      1 
     8      8     11      5      4      3 
     9      9     12      5      4      3 
    10     10     13      5      4      3 
    11     11     14      6      4      3 
    12     12     15      7      1      2 
    13     13     11      5      4      6 
    14     14     15      7      6     14 
    15     15      8      1      7      6 
    16     16     12      5      4      6 
    17     17     10      3      2      9 
    18     18     14      6      7      1 
    19     19     10      3      4      6 
    20     20     15      7      6      4 
    21     21      7      6      4      5 
    22     22      6      7      1      2 
    23     23     14      6      4      5 
    24     24     10      3      4      5 
    25     25      9      2      1      8 
    26     26      9      2      3      4 
    27     27     15      7      1      8 
    28     28     13      5      4      6 

Impropers

     1      1      1      2      7      8 
     2      2      2      1      3      9 
     3      3      3      2      4     10 
     4      4      4      3      5      6 
     5      5      6      4      7     14 
     6      6      7      1     15      6 
